TITLE     = ""
VARIABLES = "V1"
"V2"
"V3"
"V4"
"V5"
"V6"
"V7"
"V8"
ZONE T="ZONE 002"
 STRANDID=0, SOLUTIONTIME=0
 I=12672, J=1, K=1, ZONETYPE=Ordered
 DATAPACKING=POINT
 DT=(SINGLE SINGLE SINGLE SINGLE SINGLE SINGLE SINGLE SINGLE )
 2.419041991E-001 6.856273860E-002 1.087950892E-003 1.606139984E+002 1.177511573E+000 1.799603701E+000 2.531598568E+000 3.081972338E-002
 2.419041991E-001 6.849370152E-002 3.262757091E-003 1.555530701E+002 1.177013755E+000 3.064754307E-001 3.098008871E+000 1.355719715E-001
 2.419041991E-001 6.835569441E-002 5.434277933E-003 1.532631378E+002 1.177408695E+000 -2.455128431E-001 3.001158953E+000 3.049418926E-001
 2.419041991E-001 6.814886630E-002 7.600327022E-003 1.572649994E+002 1.177476287E+000 -4.963450730E-001 2.664509773E+000 4.982585013E-001
 2.419041991E-001 6.787341088E-002 9.758722968E-003 1.519915009E+002 1.177411556E+000 -5.758844614E-001 2.482959986E+000 6.032817960E-001
 2.419041991E-001 6.752961129E-002 1.190729346E-002 1.442447662E+002 1.177325964E+000 -6.378660798E-001 2.296608686E+000 7.199518681E-001
 2.419041991E-001 6.711782515E-002 1.404387318E-002 1.332713013E+002 1.177222013E+000 -7.056288719E-001 2.114127636E+000 8.693650961E-001
 2.419041991E-001 6.663844734E-002 1.616631262E-002 1.210077057E+002 1.177098274E+000 -7.595794797E-001 1.907944441E+000 1.057286978E+000
 2.419041991E-001 6.609197706E-002 1.827247441E-002 1.207886429E+002 1.177098155E+000 -7.606197000E-001 1.907515407E+000 1.061380506E+000
 2.419041991E-001 6.547895074E-002 2.036023699E-002 9.940483093E+001 1.176894903E+000 -7.571487427E-001 1.590234995E+000 1.131922722E+000
 2.419041991E-001 6.480000168E-002 2.242749743E-002 9.903284454E+001 1.176893592E+000 -7.578632236E-001 1.588019371E+000 1.136220217E+000
 2.419041991E-001 6.405579299E-002 2.447217703E-002 1.016718979E+002 1.176915765E+000 -7.732538581E-001 1.615128040E+000 1.248326063E+000
 2.419041991E-001 6.324709207E-002 2.649221383E-002 7.513090515E+001 1.176652312E+000 -7.274801135E-001 1.208153963E+000 1.292114258E+000
 2.419041991E-001 6.237471104E-002 2.848557569E-002 7.399603271E+001 1.176641703E+000 -7.318813801E-001 1.193436265E+000 1.329930425E+000
 2.419041991E-001 6.143951789E-002 3.045025468E-002 7.329534149E+001 1.176637888E+000 -7.324808836E-001 1.187813759E+000 1.334453702E+000
 2.419041991E-001 6.044246256E-002 3.238427266E-002 4.368677521E+001 1.176335812E+000 -6.720833778E-001 7.318925261E-001 1.313087344E+000
 2.419041991E-001 5.938454717E-002 3.428568318E-002 4.279611206E+001 1.176328182E+000 -6.736382246E-001 7.214999795E-001 1.326813221E+000
 2.419041991E-001 5.826683342E-002 3.615257144E-002 3.922340012E+001 1.176295519E+000 -6.745421886E-001 6.790744662E-001 1.373208642E+000
 2.419041991E-001 5.709045380E-002 3.798305616E-002 3.667756271E+001 1.176267147E+000 -6.793388724E-001 6.409705877E-001 1.454070330E+000
 2.419041991E-001 5.585658550E-002 3.977529705E-002 3.286488342E+001 1.176225901E+000 -6.795992255E-001 5.870476365E-001 1.502474904E+000
 2.419041991E-001 5.456647649E-002 4.152748361E-002 8.106971741E+000 1.175959349E+000 -5.965573788E-001 1.882187873E-001 1.219300270E+000
 2.419041991E-001 5.322142318E-002 4.323785752E-002 4.963432312E+000 1.175917268E+000 -5.937519670E-001 1.333680749E-001 1.245351076E+000
 2.419041991E-001 5.182278156E-002 4.490469769E-002 -7.059618235E-001 1.175867915E+000 -5.913999081E-001 7.157913595E-002 1.286625028E+000
 2.419041991E-001 5.037195981E-002 4.652631655E-002 -1.066184044E+000 1.175841451E+000 -5.883558393E-001 3.478926048E-002 1.294864416E+000
 2.419041991E-001 4.887041450E-002 4.810109362E-002 -6.571455002E+000 1.175766945E+000 -5.821495652E-001 -6.183930859E-002 1.337232471E+000
 2.419041991E-001 4.731966183E-002 4.962743446E-002 -1.399987698E+001 1.175668836E+000 -5.734111071E-001 -1.877977997E-001 1.382948518E+000
 2.419041991E-001 4.572126269E-002 5.110380426E-002 -3.804434967E+001 1.175494075E+000 -4.907915592E-001 -4.403582811E-001 1.016631603E+000
 2.419041991E-001 4.407682642E-002 5.252871662E-002 -3.228286362E+001 1.175504446E+000 -4.763878882E-001 -4.422745407E-001 9.368195534E-001
 2.419041991E-001 4.238800704E-002 5.390073732E-002 -3.289402008E+001 1.175491810E+000 -4.667563438E-001 -4.558858275E-001 9.112223983E-001
 2.419041991E-001 4.065650702E-002 5.521848425E-002 -4.292942047E+001 1.175443769E+000 -4.569957554E-001 -5.133882165E-001 9.080244899E-001
 2.419041991E-001 3.888406977E-002 5.648063123E-002 -4.763305283E+001 1.175385475E+000 -4.462189674E-001 -5.868849754E-001 8.956748247E-001
 2.419041991E-001 3.707247972E-002 5.768590420E-002 -6.959877014E+001 1.175304890E+000 -4.304455817E-001 -6.857118607E-001 8.544458151E-001
 2.419041991E-001 3.522356227E-002 5.883309618E-002 -7.732765198E+001 1.175213933E+000 -4.110667706E-001 -7.973715067E-001 7.987266183E-001
 2.419041991E-001 3.333917633E-002 5.992104858E-002 -8.089623260E+001 1.175148726E+000 -3.933203816E-001 -8.786008358E-001 7.338804007E-001
 2.419041991E-001 3.142121807E-002 6.094866246E-002 -8.239597321E+001 1.175098181E+000 -3.762469590E-001 -9.440838099E-001 6.673570275E-001
 2.419041991E-001 2.947162464E-002 6.191490591E-002 -8.388587952E+001 1.175049543E+000 -3.575123847E-001 -1.006905198E+000 5.990691185E-001
 2.419041991E-001 2.749235556E-002 6.281881034E-002 -8.496977234E+001 1.175014019E+000 -3.418301940E-001 -1.052790999E+000 5.442281365E-001
 2.419041991E-001 2.548540197E-002 6.365945935E-002 -8.629131317E+001 1.174973726E+000 -3.221967816E-001 -1.104290605E+000 4.778230190E-001
 2.419041991E-001 2.345278859E-002 6.443601102E-002 -8.750528717E+001 1.174936533E+000 -3.013132513E-001 -1.151883602E+000 4.089114368E-001
 2.419041991E-001 2.139656059E-002 6.514767557E-002 -8.859158325E+001 1.174902320E+000 -2.792418599E-001 -1.195251584E+000 3.375965953E-001
 2.419041991E-001 1.931878738E-002 6.579374522E-002 -8.953713226E+001 1.174871325E+000 -2.560525537E-001 -1.234199524E+000 2.641329765E-001
 2.419041991E-001 1.722156070E-002 6.637356430E-002 -9.075091553E+001 1.174830914E+000 -2.192609012E-001 -1.284998059E+000 1.509183347E-001
 2.419041991E-001 1.510699466E-002 6.688655168E-002 -8.350217438E+001 1.174943089E+000 -2.230105400E-001 -1.149295449E+000 1.131610423E-001
 2.419041991E-001 1.297721639E-002 6.733219326E-002 -7.704209137E+001 1.175001502E+000 -1.841347963E-001 -1.079834104E+000 -4.240001738E-002
 2.419041991E-001 1.083437167E-002 6.771003455E-002 -6.683073425E+001 1.175115108E+000 -1.608780324E-001 -9.517630339E-001 -1.605402082E-001
 2.419041991E-001 8.680617437E-003 6.801969558E-002 -6.662864685E+001 1.175103545E+000 -1.317008436E-001 -9.650836587E-001 -2.368317693E-001
 2.419041991E-001 6.518122740E-003 6.826087087E-002 -6.641454315E+001 1.175098896E+000 -1.121120378E-001 -9.701613784E-001 -2.879640162E-001
 2.419041991E-001 4.349065013E-003 6.843331456E-002 -6.615023041E+001 1.175096512E+000 -9.259705991E-002 -9.724774957E-001 -3.390526474E-001
 2.419041991E-001 2.175627742E-003 6.853684783E-002 -6.581634521E+001 1.175096273E+000 -7.159514725E-002 -9.719550014E-001 -3.940832913E-001
 2.419041991E-001 0.000000000E+000 6.857136637E-002 -6.525747681E+001 1.175099850E+000 -4.465400800E-002 -9.661677480E-001 -4.655498862E-001
 2.419041991E-001 -2.175627742E-003 6.853684783E-002 -6.469997406E+001 1.175105214E+000 -2.424413897E-002 -9.586214423E-001 -5.181794763E-001
 2.419041991E-001 -4.349065013E-003 6.843331456E-002 -6.399199677E+001 1.175112367E+000 -5.760259926E-003 -9.486567974E-001 -5.658147335E-001
 2.419041991E-001 -6.518122740E-003 6.826087087E-002 -6.310729218E+001 1.175121903E+000 1.237681415E-002 -9.359861612E-001 -6.122258306E-001
 2.419041991E-001 -8.680617437E-003 6.801969558E-002 -6.146995926E+001 1.175139904E+000 3.882178292E-002 -9.121627808E-001 -6.790561080E-001
 2.419041991E-001 -1.083437167E-002 6.771003455E-002 -6.020872498E+001 1.175153971E+000 5.600420758E-002 -8.937022686E-001 -7.217286825E-001
 2.419041991E-001 -1.297721639E-002 6.733219326E-002 -5.880014038E+001 1.175169706E+000 7.271488756E-002 -8.730018139E-001 -7.625663877E-001
 2.419041991E-001 -1.510699466E-002 6.688655168E-002 -6.325637436E+001 1.175107598E+000 7.981752604E-002 -9.438584447E-001 -7.680139542E-001
 2.419041991E-001 -1.722156070E-002 6.637356430E-002 -6.073180008E+001 1.175137281E+000 1.124810427E-001 -9.046670794E-001 -8.505938649E-001
 2.419041991E-001 -1.931878738E-002 6.579374522E-002 -5.788845825E+001 1.175170779E+000 1.404677331E-001 -8.608242869E-001 -9.191493392E-001
 2.419041991E-001 -2.139656059E-002 6.514767557E-002 -5.738575363E+001 1.175165772E+000 2.011712641E-001 -8.574660420E-001 -1.063082576E+000
 2.419041991E-001 -2.345278859E-002 6.443601102E-002 -5.533559418E+001 1.175184608E+000 2.469938546E-001 -8.247615099E-001 -1.161536098E+000
 2.419041991E-001 -2.548540197E-002 6.365945935E-002 -5.098509216E+001 1.175235987E+000 2.673274875E-001 -7.589762211E-001 -1.197348952E+000
 2.419041991E-001 -2.749235556E-002 6.281881034E-002 -5.229089737E+001 1.175212741E+000 3.099208474E-001 -7.770575881E-001 -1.298821568E+000
 2.419041991E-001 -2.947162464E-002 6.191490591E-002 -4.815194702E+001 1.175263166E+000 3.262503743E-001 -7.127108574E-001 -1.323764682E+000
 2.419041991E-001 -3.142121807E-002 6.094866246E-002 -4.452940369E+001 1.175307274E+000 3.396528363E-001 -6.565404534E-001 -1.341459155E+000
 2.419041991E-001 -3.333917633E-002 5.992104858E-002 -4.091514969E+001 1.175350904E+000 3.520475626E-001 -6.003315449E-001 -1.355024457E+000
 2.419041991E-001 -3.522356227E-002 5.883309618E-002 -3.526823425E+001 1.175412416E+000 3.684822023E-001 -5.237919092E-001 -1.363541484E+000
 2.419041991E-001 -3.707247972E-002 5.768590420E-002 -2.923620415E+001 1.175477028E+000 3.824256659E-001 -4.424739778E-001 -1.352064848E+000
 2.419041991E-001 -3.888406977E-002 5.648063123E-002 -2.676134300E+001 1.175517440E+000 3.941789567E-001 -3.906682134E-001 -1.340551138E+000
 2.419041991E-001 -4.065650702E-002 5.521848425E-002 -2.406704330E+001 1.175552726E+000 3.934012949E-001 -3.494786620E-001 -1.330160975E+000
 2.419041991E-001 -4.238800704E-002 5.390073732E-002 -2.214383507E+001 1.175578356E+000 3.935734928E-001 -3.191391528E-001 -1.321861625E+000
 2.419041991E-001 -4.407682642E-002 5.252871662E-002 -1.980434418E+001 1.175607085E+000 3.933982849E-001 -2.851228118E-001 -1.310260296E+000
 2.419041991E-001 -4.572126269E-002 5.110380426E-002 -1.755363655E+001 1.175634742E+000 3.921265602E-001 -2.523008585E-001 -1.292532444E+000
 2.419041991E-001 -4.731966183E-002 4.962743446E-002 -1.206432915E+001 1.175683260E+000 4.207075536E-001 -1.876188964E-001 -1.299610496E+000
 2.419041991E-001 -4.887041450E-002 4.810109362E-002 -3.076290846E+000 1.175797224E+000 5.335898399E-001 -2.053989330E-003 -1.452851415E+000
 2.419041991E-001 -5.037195981E-002 4.652631655E-002 -1.753287911E+000 1.175818682E+000 5.294308662E-001 2.466084249E-002 -1.430138111E+000
 2.419041991E-001 -5.182278156E-002 4.490469769E-002 7.176756859E-002 1.175842881E+000 5.219223499E-001 5.351825804E-002 -1.387416363E+000
 2.419041991E-001 -5.322142318E-002 4.323785752E-002 1.211125970E+000 1.175860524E+000 5.170729756E-001 7.530415803E-002 -1.362518907E+000
 2.419041991E-001 -5.456647649E-002 4.152748361E-002 1.803670406E+000 1.175870895E+000 5.105191469E-001 8.732542396E-002 -1.333100557E+000
 2.419041991E-001 -5.585658550E-002 3.977529705E-002 2.808296442E+000 1.175883532E+000 5.082945228E-001 1.030529514E-001 -1.313712001E+000
 2.419041991E-001 -5.709045380E-002 3.798305616E-002 1.828997421E+001 1.176037550E+000 6.331364512E-001 3.497657478E-001 -1.311520576E+000
 2.419041991E-001 -5.826683342E-002 3.615257144E-002 1.760222816E+001 1.176032543E+000 6.249355078E-001 3.417056203E-001 -1.279171228E+000
 2.419041991E-001 -5.938454717E-002 3.428568318E-002 1.810164452E+001 1.176037312E+000 6.142244339E-001 3.457113802E-001 -1.236903906E+000
 2.419041991E-001 -6.044246256E-002 3.238427266E-002 1.835585785E+001 1.176039815E+000 6.146864295E-001 3.493765593E-001 -1.234521270E+000
 2.419041991E-001 -6.143951789E-002 3.045025468E-002 1.769284630E+001 1.176032186E+000 6.034864187E-001 3.379385769E-001 -1.205081105E+000
 2.419041991E-001 -6.237471104E-002 2.848557569E-002 3.008401871E+001 1.176149368E+000 7.191215158E-001 5.129595399E-001 -1.094110727E+000
 2.419041991E-001 -6.324709207E-002 2.649221383E-002 3.027820396E+001 1.176150799E+000 7.192693353E-001 5.149185061E-001 -1.090918183E+000
 2.419041991E-001 -6.405579299E-002 2.447217703E-002 3.064943695E+001 1.176146626E+000 7.119988203E-001 5.074628592E-001 -1.076660156E+000
 2.419041991E-001 -6.480000168E-002 2.242749743E-002 4.015398788E+001 1.176236749E+000 8.278855681E-001 6.211240888E-001 -9.251976013E-001
 2.419041991E-001 -6.547895074E-002 2.036023699E-002 3.581264114E+001 1.176196456E+000 8.073678613E-001 5.666093826E-001 -8.899466991E-001
 2.419041991E-001 -6.609197706E-002 1.827247441E-002 4.332163620E+001 1.176267028E+000 9.126035571E-001 6.523117423E-001 -7.424473763E-001
 2.419041991E-001 -6.663844734E-002 1.616631262E-002 4.370282745E+001 1.176262140E+000 9.073802829E-001 6.462973952E-001 -7.426117659E-001
 2.419041991E-001 -6.711782515E-002 1.404387318E-002 4.894540405E+001 1.176319957E+000 1.003888607E+000 7.217134833E-001 -5.934444070E-001
 2.419041991E-001 -6.752961129E-002 1.190729346E-002 4.888423538E+001 1.176312566E+000 1.000548124E+000 7.106877565E-001 -5.883125067E-001
 2.419041991E-001 -6.787341088E-002 9.758722968E-003 4.709929657E+001 1.176309586E+000 1.099554539E+000 7.009791732E-001 -4.215728641E-001
 2.419041991E-001 -6.814886630E-002 7.600327022E-003 4.841168213E+001 1.176331162E+000 1.265475273E+000 7.516834140E-001 -3.031018972E-001
 2.419041991E-001 -6.835569441E-002 5.434277933E-003 2.301910782E+001 1.175820112E+000 3.959673166E+000 3.150676489E+000 -1.182241142E-001
 2.419041991E-001 -6.849370152E-002 3.262757091E-003 2.272237206E+001 1.175029397E+000 4.223756790E+000 3.418825150E+000 -1.349483244E-002
 2.419041991E-001 -6.856273860E-002 1.087950892E-003 2.082438278E+001 1.175132871E+000 7.005671978E+000 3.000101089E+000 1.029057652E-001
 3.095889986E-001 6.856273860E-002 1.087950892E-003 2.842609253E+002 1.177599907E+000 3.175789356E+000 3.934537172E+000 7.756381482E-002
 3.095889986E-001 6.849370152E-002 3.262757091E-003 2.848286438E+002 1.177414775E+000 4.975299835E-001 4.574164867E+000 2.374315709E-001
 3.095889986E-001 6.835569441E-002 5.434277933E-003 2.790845337E+002 1.177798271E+000 -2.723923512E-002 4.308168411E+000 4.552161694E-001
 3.095889986E-001 6.814886630E-002 7.600327022E-003 2.674522095E+002 1.177903175E+000 -2.424392253E-001 3.585027695E+000 6.702769995E-001
 3.095889986E-001 6.787341088E-002 9.758722968E-003 2.572370605E+002 1.177848458E+000 -3.369462490E-001 3.303709745E+000 8.055813313E-001
 3.095889986E-001 6.752961129E-002 1.190729346E-002 2.483831787E+002 1.177799702E+000 -4.191496372E-001 3.069438219E+000 1.007905960E+000
 3.095889986E-001 6.711782515E-002 1.404387318E-002 2.264189758E+002 1.177642226E+000 -4.900182784E-001 2.756269217E+000 1.158665657E+000
 3.095889986E-001 6.663844734E-002 1.616631262E-002 1.995879211E+002 1.177450061E+000 -5.610534549E-001 2.421281576E+000 1.335233569E+000
 3.095889986E-001 6.609197706E-002 1.827247441E-002 2.016597137E+002 1.177467942E+000 -5.719239116E-001 2.443638802E+000 1.434022784E+000
 3.095889986E-001 6.547895074E-002 2.036023699E-002 1.657231445E+002 1.177199006E+000 -5.932326317E-001 2.009966612E+000 1.538919687E+000
 3.095889986E-001 6.480000168E-002 2.242749743E-002 1.652470703E+002 1.177195668E+000 -5.945756435E-001 2.004896879E+000 1.541879416E+000
 3.095889986E-001 6.405579299E-002 2.447217703E-002 1.652549133E+002 1.177197099E+000 -6.008757949E-001 2.004476786E+000 1.601473570E+000
 3.095889986E-001 6.324709207E-002 2.649221383E-002 1.168430328E+002 1.176826358E+000 -5.943527818E-001 1.453038812E+000 1.666742682E+000
 3.095889986E-001 6.237471104E-002 2.848557569E-002 1.160944290E+002 1.176820755E+000 -5.955004692E-001 1.445047617E+000 1.669137239E+000
 3.095889986E-001 6.143951789E-002 3.045025468E-002 1.132493210E+002 1.176797509E+000 -6.010054946E-001 1.414111376E+000 1.782109499E+000
 3.095889986E-001 6.044246256E-002 3.238427266E-002 6.200433731E+001 1.176402807E+000 -5.654797554E-001 8.460486531E-001 1.627606630E+000
 3.095889986E-001 5.938454717E-002 3.428568318E-002 6.112094498E+001 1.176396012E+000 -5.660831928E-001 8.364995122E-001 1.626264572E+000
 3.095889986E-001 5.826683342E-002 3.615257144E-002 5.098789597E+001 1.176312923E+000 -5.717320442E-001 7.375344634E-001 1.764167666E+000
 3.095889986E-001 5.709045380E-002 3.798305616E-002 5.015276718E+001 1.176306486E+000 -5.718561411E-001 7.284566164E-001 1.761721253E+000
 3.095889986E-001 5.585658550E-002 3.977529705E-002 4.038433838E+001 1.176226377E+000 -5.744559765E-001 6.315304637E-001 1.855120540E+000
 3.095889986E-001 5.456647649E-002 4.152748361E-002 -9.300903678E-001 1.175912619E+000 -5.139464736E-001 1.755451411E-001 1.457458019E+000
 3.095889986E-001 5.322142318E-002 4.323785752E-002 -7.600323200E+000 1.175857782E+000 -5.126534700E-001 1.098760739E-001 1.483495831E+000
 3.095889986E-001 5.182278156E-002 4.490469769E-002 -1.958398438E+001 1.175758719E+000 -5.086473823E-001 -6.303869653E-003 1.536454439E+000
 3.095889986E-001 5.037195981E-002 4.652631655E-002 -2.219451904E+001 1.175737500E+000 -5.078693628E-001 -3.006154113E-002 1.543568015E+000
 3.095889986E-001 4.887041450E-002 4.810109362E-002 -3.257448578E+001 1.175651789E+000 -5.021944642E-001 -1.340347975E-001 1.567569613E+000
 3.095889986E-001 4.731966183E-002 4.962743446E-002 -4.545654678E+001 1.175545096E+000 -4.959874153E-001 -2.581105530E-001 1.603325248E+000
 3.095889986E-001 4.572126269E-002 5.110380426E-002 -7.422618103E+001 1.175327182E+000 -4.300146997E-001 -5.569199920E-001 1.175842643E+000
 3.095889986E-001 4.407682642E-002 5.252871662E-002 -6.884044647E+001 1.175379395E+000 -4.172700346E-001 -5.182873607E-001 1.053992152E+000
 3.095889986E-001 4.238800704E-002 5.390073732E-002 -7.713033295E+001 1.175310969E+000 -4.100893736E-001 -5.983910561E-001 1.040431619E+000
 3.095889986E-001 4.065650702E-002 5.521848425E-002 -8.371959686E+001 1.175256252E+000 -4.013990164E-001 -6.589419246E-001 1.029252291E+000
 3.095889986E-001 3.888406977E-002 5.648063123E-002 -9.148167419E+001 1.175191998E+000 -3.919514418E-001 -7.323957682E-001 9.996127486E-001
 3.095889986E-001 3.707247972E-002 5.768590420E-002 -1.012052994E+002 1.175112128E+000 -3.787537813E-001 -8.194550872E-001 9.609540701E-001
 3.095889986E-001 3.522356227E-002 5.883309618E-002 -1.120676880E+002 1.175023437E+000 -3.637011647E-001 -9.150490165E-001 9.008123279E-001
 3.095889986E-001 3.333917633E-002 5.992104858E-002 -1.197692642E+002 1.174961090E+000 -3.493219614E-001 -9.870590568E-001 8.350967169E-001
 3.095889986E-001 3.142121807E-002 6.094866246E-002 -1.274597321E+002 1.174898863E+000 -3.335486650E-001 -1.060313940E+000 7.599650025E-001
 3.095889986E-001 2.947162464E-002 6.191490591E-002 -1.348440094E+002 1.174838901E+000 -3.166533113E-001 -1.130146265E+000 6.827213168E-001
 3.095889986E-001 2.749235556E-002 6.281881034E-002 -1.402184753E+002 1.174795389E+000 -3.027399182E-001 -1.180677772E+000 6.204038262E-001
 3.095889986E-001 2.548540197E-002 6.365945935E-002 -1.462418060E+002 1.174746275E+000 -2.857529819E-001 -1.237083435E+000 5.453692675E-001
 3.095889986E-001 2.345278859E-002 6.443601102E-002 -1.517965240E+002 1.174701214E+000 -2.679324448E-001 -1.288825274E+000 4.676512182E-001
 3.095889986E-001 2.139656059E-002 6.514767557E-002 -1.568433380E+002 1.174659848E+000 -2.493111938E-001 -1.335582018E+000 3.873785138E-001
 3.095889986E-001 1.931878738E-002 6.579374522E-002 -1.613597107E+002 1.174622774E+000 -2.299246043E-001 -1.377182245E+000 3.048336208E-001
 3.095889986E-001 1.722156070E-002 6.637356430E-002 -1.672294617E+002 1.174574852E+000 -1.993631423E-001 -1.430948019E+000 1.779922843E-001
 3.095889986E-001 1.510699466E-002 6.688655168E-002 -1.512587891E+002 1.174713969E+000 -2.025632113E-001 -1.287165165E+000 1.356276721E-001
 3.095889986E-001 1.297721639E-002 6.733219326E-002 -1.422444763E+002 1.174795747E+000 -1.714785844E-001 -1.209028363E+000 -3.387957811E-002
 3.095889986E-001 1.083437167E-002 6.771003455E-002 -1.282590942E+002 1.174924731E+000 -1.509166956E-001 -1.082937121E+000 -1.572920978E-001
 3.095889986E-001 8.680617437E-003 6.801969558E-002 -1.295553741E+002 1.174914122E+000 -1.269030571E-001 -1.093785763E+000 -2.444218695E-001
 3.095889986E-001 6.518122740E-003 6.826087087E-002 -1.299004974E+002 1.174911380E+000 -1.108359993E-001 -1.096234918E+000 -3.027807474E-001
 3.095889986E-001 4.349065013E-003 6.843331456E-002 -1.298884735E+002 1.174911499E+000 -9.476177394E-002 -1.095346928E+000 -3.609682322E-001
 3.095889986E-001 2.175627742E-003 6.853684783E-002 -1.294897614E+002 1.174914837E+000 -7.759080827E-002 -1.090787172E+000 -4.229067862E-001
 3.095889986E-001 0.000000000E+000 6.857136637E-002 -1.283043671E+002 1.174924374E+000 -5.511788651E-002 -1.078703403E+000 -5.040833354E-001
 3.095889986E-001 -2.175627742E-003 6.853684783E-002 -1.269855804E+002 1.174935102E+000 -3.824066371E-002 -1.065659642E+000 -5.632195473E-001
 3.095889986E-001 -4.349065013E-003 6.843331456E-002 -1.253856888E+002 1.174948096E+000 -2.279624529E-002 -1.050046325E+000 -6.171377301E-001
 3.095889986E-001 -6.518122740E-003 6.826087087E-002 -1.234456100E+002 1.174963951E+000 -7.603303995E-003 -1.031256557E+000 -6.696190238E-001
 3.095889986E-001 -8.680617437E-003 6.801969558E-002 -1.199023895E+002 1.174992800E+000 1.460439526E-002 -9.972114563E-001 -7.449972034E-001
 3.095889986E-001 -1.083437167E-002 6.771003455E-002 -1.172167435E+002 1.175014615E+000 2.910024673E-002 -9.714742899E-001 -7.931289077E-001
 3.095889986E-001 -1.297721639E-002 6.733219326E-002 -1.142469406E+002 1.175038695E+000 4.324324802E-002 -9.430820346E-001 -8.391685486E-001
 3.095889986E-001 -1.510699466E-002 6.688655168E-002 -1.223324280E+002 1.174965143E+000 4.947569966E-002 -1.013846040E+000 -8.498171568E-001
 3.095889986E-001 -1.722156070E-002 6.637356430E-002 -1.167740860E+002 1.175010085E+000 7.597684860E-002 -9.617151022E-001 -9.381707311E-001
 3.095889986E-001 -1.931878738E-002 6.579374522E-002 -1.106926880E+002 1.175059319E+000 9.943491966E-002 -9.045891166E-001 -1.012898564E+000
 3.095889986E-001 -2.139656059E-002 6.514767557E-002 -1.095532074E+002 1.175061107E+000 1.497306824E-001 -8.829175830E-001 -1.174732685E+000
 3.095889986E-001 -2.345278859E-002 6.443601102E-002 -1.038149338E+002 1.175101638E+000 1.867896318E-001 -8.252533674E-001 -1.277426243E+000
 3.095889986E-001 -2.548540197E-002 6.365945935E-002 -9.533383179E+001 1.175171137E+000 2.042284608E-001 -7.440844774E-001 -1.316672444E+000
 3.095889986E-001 -2.749235556E-002 6.281881034E-002 -9.785091400E+001 1.175142407E+000 2.399591506E-001 -7.568900585E-001 -1.433130980E+000
 3.095889986E-001 -2.947162464E-002 6.191490591E-002 -8.953243256E+001 1.175211310E+000 2.544564605E-001 -6.779057980E-001 -1.460330606E+000
 3.095889986E-001 -3.142121807E-002 6.094866246E-002 -8.222140503E+001 1.175271869E+000 2.667177320E-001 -6.080346107E-001 -1.479758620E+000
 3.095889986E-001 -3.333917633E-002 5.992104858E-002 -7.494758606E+001 1.175331831E+000 2.783266008E-001 -5.380710959E-001 -1.494478345E+000
 3.095889986E-001 -3.522356227E-002 5.883309618E-002 -6.572961426E+001 1.175407529E+000 2.908113003E-001 -4.519205391E-001 -1.504189134E+000
 3.095889986E-001 -3.707247972E-002 5.768590420E-002 -5.692950439E+001 1.175479412E+000 3.054027855E-001 -3.700067699E-001 -1.499261618E+000
 3.095889986E-001 -3.888406977E-002 5.648063123E-002 -5.088512421E+001 1.175529599E+000 3.236660659E-001 -3.163858056E-001 -1.482954264E+000
 3.095889986E-001 -4.065650702E-002 5.521848425E-002 -4.685387421E+001 1.175562978E+000 3.264110386E-001 -2.780924141E-001 -1.479154110E+000
 3.095889986E-001 -4.238800704E-002 5.390073732E-002 -4.298440933E+001 1.175594926E+000 3.291315138E-001 -2.426473498E-001 -1.472965240E+000
 3.095889986E-001 -4.407682642E-002 5.252871662E-002 -3.713338470E+001 1.175643563E+000 3.289315104E-001 -1.901188940E-001 -1.462164283E+000
 3.095889986E-001 -4.572126269E-002 5.110380426E-002 -3.209743881E+001 1.175685167E+000 3.311797976E-001 -1.429552734E-001 -1.449080825E+000
 3.095889986E-001 -4.731966183E-002 4.962743446E-002 -3.005479813E+001 1.175698161E+000 3.544327021E-001 -1.171192154E-001 -1.502412915E+000
 3.095889986E-001 -4.887041450E-002 4.810109362E-002 -1.648859978E+000 1.175908089E+000 4.739758074E-001 1.953108758E-001 -1.661739588E+000
 3.095889986E-001 -5.037195981E-002 4.652631655E-002 3.660111427E+000 1.175951719E+000 4.723510742E-001 2.451821119E-001 -1.614597678E+000
 3.095889986E-001 -5.182278156E-002 4.490469769E-002 7.945977688E+000 1.175986648E+000 4.704408944E-001 2.853080928E-001 -1.571529746E+000
 3.095889986E-001 -5.322142318E-002 4.323785752E-002 1.157415962E+001 1.176016092E+000 4.682708383E-001 3.201586604E-001 -1.537700057E+000
 3.095889986E-001 -5.456647649E-002 4.152748361E-002 1.388269329E+001 1.176034689E+000 4.678544104E-001 3.422837853E-001 -1.511550426E+000
 3.095889986E-001 -5.585658550E-002 3.977529705E-002 1.739024925E+001 1.176062942E+000 4.643646479E-001 3.757853210E-001 -1.472103596E+000
 3.095889986E-001 -5.709045380E-002 3.798305616E-002 4.797526932E+001 1.176283956E+000 6.039085388E-001 7.216009498E-001 -1.535977244E+000
 3.095889986E-001 -5.826683342E-002 3.615257144E-002 4.997099686E+001 1.176299691E+000 6.008051038E-001 7.397183180E-001 -1.491993070E+000
 3.095889986E-001 -5.938454717E-002 3.428568318E-002 5.078925323E+001 1.176305294E+000 5.967230797E-001 7.471226454E-001 -1.469177365E+000
 3.095889986E-001 -6.044246256E-002 3.238427266E-002 5.183652878E+001 1.176313162E+000 5.946332216E-001 7.568318844E-001 -1.425962806E+000
 3.095889986E-001 -6.143951789E-002 3.045025468E-002 5.292714691E+001 1.176321507E+000 5.920386314E-001 7.669435143E-001 -1.398277402E+000
 3.095889986E-001 -6.237471104E-002 2.848557569E-002 8.164576721E+001 1.176525116E+000 7.333196998E-001 1.083520532E+000 -1.323315024E+000
 3.095889986E-001 -6.324709207E-002 2.649221383E-002 8.150193024E+001 1.176523328E+000 7.283862233E-001 1.079493761E+000 -1.285539746E+000
 3.095889986E-001 -6.405579299E-002 2.447217703E-002 8.060014343E+001 1.176515222E+000 7.265983224E-001 1.071549773E+000 -1.256742477E+000
 3.095889986E-001 -6.480000168E-002 2.242749743E-002 1.040676880E+002 1.176675200E+000 8.695105910E-001 1.329690814E+000 -1.129338026E+000
 3.095889986E-001 -6.547895074E-002 2.036023699E-002 1.013173828E+002 1.176650882E+000 8.591581583E-001 1.298613310E+000 -1.058665633E+000
 3.095889986E-001 -6.609197706E-002 1.827247441E-002 1.197123642E+002 1.176772833E+000 9.990487099E-001 1.520177603E+000 -9.113370180E-001
 3.095889986E-001 -6.663844734E-002 1.616631262E-002 1.167526245E+002 1.176747799E+000 9.953474998E-001 1.493106484E+000 -8.848798275E-001
 3.095889986E-001 -6.711782515E-002 1.404387318E-002 1.302890472E+002 1.176838160E+000 1.132318377E+000 1.685860753E+000 -7.248281240E-001
 3.095889986E-001 -6.752961129E-002 1.190729346E-002 1.260414200E+002 1.176801801E+000 1.120551705E+000 1.636305094E+000 -6.892223954E-001
 3.095889986E-001 -6.787341088E-002 9.758722968E-003 1.320085907E+002 1.176827788E+000 1.275215268E+000 1.770841837E+000 -5.263319612E-001
 3.095889986E-001 -6.814886630E-002 7.600327022E-003 1.373871765E+002 1.176833868E+000 1.489060521E+000 1.953296542E+000 -3.896529973E-001
 3.095889986E-001 -6.835569441E-002 5.434277933E-003 1.385060272E+002 1.177046061E+000 3.210417747E+000 2.941574812E+000 -1.843933463E-001
 3.095889986E-001 -6.849370152E-002 3.262757091E-003 1.431306000E+002 1.178303123E+000 9.233422279E+000 9.281470299E+000 -1.354966406E-002
 3.095889986E-001 -6.856273860E-002 1.087950892E-003 1.392996674E+002 1.181168437E+000 1.888464355E+001 1.550450516E+001 7.015946507E-002
 3.550015688E-001 6.856273860E-002 1.087950892E-003 3.575410156E+002 1.177968383E+000 5.001171112E+000 5.296988487E+000 6.455124915E-002
 3.550015688E-001 6.849370152E-002 3.262757091E-003 3.576318054E+002 1.178070426E+000 1.878963590E+000 5.525371075E+000 2.052387893E-001
 3.550015688E-001 6.835569441E-002 5.434277933E-003 3.440633240E+002 1.177923560E+000 3.137555718E-001 5.288754463E+000 4.355913103E-001
 3.550015688E-001 6.814886630E-002 7.600327022E-003 3.318304138E+002 1.178180456E+000 1.188148484E-001 4.314568520E+000 6.546080709E-001
 3.550015688E-001 6.787341088E-002 9.758722968E-003 3.208217773E+002 1.178167820E+000 5.548438057E-003 3.955620766E+000 7.987411618E-001
 3.550015688E-001 6.752961129E-002 1.190729346E-002 3.325167542E+002 1.178319097E+000 -1.064388454E-001 3.859830379E+000 1.175242782E+000
 3.550015688E-001 6.711782515E-002 1.404387318E-002 3.049174194E+002 1.178142667E+000 -1.941299289E-001 3.471130371E+000 1.359695077E+000
 3.550015688E-001 6.663844734E-002 1.616631262E-002 2.710055847E+002 1.177912235E+000 -2.704022527E-001 3.064732790E+000 1.511960745E+000
 3.550015688E-001 6.609197706E-002 1.827247441E-002 2.651900940E+002 1.177872419E+000 -2.820490301E-001 2.997128248E+000 1.541735888E+000
 3.550015688E-001 6.547895074E-002 2.036023699E-002 2.268511505E+002 1.177601933E+000 -3.353705108E-001 2.568785667E+000 1.632258892E+000
 3.550015688E-001 6.480000168E-002 2.242749743E-002 2.180216980E+002 1.177538753E+000 -3.444165289E-001 2.472198725E+000 1.650272250E+000
 3.550015688E-001 6.405579299E-002 2.447217703E-002 2.128420410E+002 1.177505851E+000 -3.658125699E-001 2.407703400E+000 1.923447847E+000
 3.550015688E-001 6.324709207E-002 2.649221383E-002 1.725678406E+002 1.177209496E+000 -3.886556029E-001 1.987453461E+000 1.905404568E+000